                         Program Version 4.2.1 -  RELEASE  -
                         Program Version 4.2.1 -  RELEASE  -
                         Program Version 4.2.1 -  RELEASE  -
                         Program Version 4.2.1 -  RELEASE  -
|  1> # avogadro generated ORCA input file
|  2> # Basic Mode
|  3> #
|  4> ! wB97X-D3 OPT def2-TZVP def2/J CPCM
|  5> %cpcm
|  6>   epsilon 3
|  7> end
|  8> %pal
|  9>  nprocs 4
| 10> end
| 11>
| 12>
| 13> * xyz -8 1
| 14>   Na       -1.57138        0.17233       -1.21484
| 15>    O        1.11940       -0.03409        0.16956
| 16>    C        2.34182       -0.06075        0.13613
| 17>    C        3.11077        1.20992        0.12786
| 18>    C        2.44630        2.45033        0.15743
| 19>    C        3.17305        3.64261        0.14960
| 20>    C        4.56695        3.61220        0.11233
| 21>    C        5.24043        2.38936        0.08266
| 22>    C        4.52194        1.17909        0.09005
| 23>    C        5.23418       -0.12397        0.05852
| 24>    O        6.45668       -0.15046        0.02589
| 25>    C        4.46496       -1.39487        0.06640
| 26>    C        5.12972       -2.63499        0.03647
| 27>    C        4.40357       -3.82989        0.04394
| 28>    S        5.26112       -5.40275        0.00553
| 29>    O        4.85580       -6.30575        1.17993
| 30>    O        4.84666       -6.25324       -1.20430
| 31>    O        6.97773       -5.41227       -0.00045
| 32>    C        3.00774       -3.79640        0.08121
| 33>    C        2.33566       -2.57327        0.11120
| 34>    C        3.05418       -1.36375        0.10419
| 35>    H        1.36495        2.49943        0.18658
| 36>    H        2.65409        4.59223        0.17250
| 37>    H        5.12729        4.53826        0.10638
| 38>    H        6.32288        2.39130        0.05395
| 39>    H        6.21144       -2.67604        0.00733
| 40>    H        2.44057       -4.71864        0.08702
| 41>    H        1.25319       -2.57458        0.13985
| 42> *
| 43>
| 44>
| 45>                          ****END OF INPUT****
 Total Charge           Charge          ....   -8
 Multiplicity           Mult            ....    1
 Number of Electrons    NEL             ....  166
 Basis Dimension        Dim             ....  700

ORBITAL ENERGIES
----------------

  NO   OCC          E(Eh)            E(eV)
   0   2.0000     -88.853290     -2417.8209
   1   2.0000     -38.205849     -1039.6340
   2   2.0000     -18.914791      -514.6976
   3   2.0000     -18.910544      -514.5821
   4   2.0000     -18.909514      -514.5540
   5   2.0000     -18.822850      -512.1958
   6   2.0000     -18.813437      -511.9397
   7   2.0000      -9.975024      -271.4342
   8   2.0000      -9.968446      -271.2552
   9   2.0000      -9.966728      -271.2084
  10   2.0000      -9.964209      -271.1399
  11   2.0000      -9.955278      -270.8969
  12   2.0000      -9.946169      -270.6490
  13   2.0000      -9.941105      -270.5112
  14   2.0000      -9.940553      -270.4962
  15   2.0000      -9.937532      -270.4140
  16   2.0000      -9.936749      -270.3927
  17   2.0000      -9.934698      -270.3369
  18   2.0000      -9.929788      -270.2033
  19   2.0000      -9.926837      -270.1230
  20   2.0000      -9.916592      -269.8442
  21   2.0000      -7.913157      -215.3280
  22   2.0000      -5.867081      -159.6514
  23   2.0000      -5.865851      -159.6179
  24   2.0000      -5.864389      -159.5781
  25   2.0000      -1.971167       -53.6382
  26   2.0000      -0.893580       -24.3155
  27   2.0000      -0.892446       -24.2847
  28   2.0000      -0.891484       -24.2585
  29   2.0000      -0.884668       -24.0730
  30   2.0000      -0.777054       -21.1447
  31   2.0000      -0.768992       -20.9253
  32   2.0000      -0.764185       -20.7945
  33   2.0000      -0.727532       -19.7972
  34   2.0000      -0.646561       -17.5938
  35   2.0000      -0.643526       -17.5112
  36   2.0000      -0.566580       -15.4174
  37   2.0000      -0.541037       -14.7224
  38   2.0000      -0.533809       -14.5257
  39   2.0000      -0.528357       -14.3773
  40   2.0000      -0.457906       -12.4603
  41   2.0000      -0.420762       -11.4495
  42   2.0000      -0.412486       -11.2243
  43   2.0000      -0.379547       -10.3280
  44   2.0000      -0.370318       -10.0769
  45   2.0000      -0.329502        -8.9662
  46   2.0000      -0.309010        -8.4086
  47   2.0000      -0.307731        -8.3738
  48   2.0000      -0.263851        -7.1797
  49   2.0000      -0.258644        -7.0381
  50   2.0000      -0.255134        -6.9426
  51   2.0000      -0.247025        -6.7219
  52   2.0000      -0.230583        -6.2745
  53   2.0000      -0.223540        -6.0828
  54   2.0000      -0.203543        -5.5387
  55   2.0000      -0.195854        -5.3295
  56   2.0000      -0.188056        -5.1173
  57   2.0000      -0.184852        -5.0301
  58   2.0000      -0.176987        -4.8161
  59   2.0000      -0.172103        -4.6832
  60   2.0000      -0.153659        -4.1813
  61   2.0000      -0.149062        -4.0562
  62   2.0000      -0.134956        -3.6723
  63   2.0000      -0.134156        -3.6506
  64   2.0000      -0.131503        -3.5784
  65   2.0000      -0.125208        -3.4071
  66   2.0000      -0.118852        -3.2341
  67   2.0000      -0.115788        -3.1508
  68   2.0000      -0.097904        -2.6641
  69   2.0000      -0.089925        -2.4470
  70   2.0000      -0.087812        -2.3895
  71   2.0000      -0.080703        -2.1960
  72   2.0000      -0.059757        -1.6261
  73   2.0000      -0.025838        -0.7031
  74   2.0000      -0.023299        -0.6340
  75   2.0000      -0.016553        -0.4504
  76   2.0000      -0.011611        -0.3160
  77   2.0000       0.007591         0.2066
  78   2.0000       0.024203         0.6586
  79   2.0000       0.143073         3.8932
  80   2.0000       0.151462         4.1215
  81   2.0000       0.180898         4.9225
  82   2.0000       0.217237         5.9113
  83   0.0000       0.331846         9.0300
  84   0.0000       0.345985         9.4147
  85   0.0000       0.347813         9.4645
  86   0.0000       0.366410         9.9705
  87   0.0000       0.375907        10.2289

MULLIKEN ATOMIC CHARGES
-----------------------
   0 Na:   -3.062059
   1 O :   -0.583778
   2 C :    0.014489
   3 C :    0.014426
   4 C :   -0.301846
   5 C :   -0.324022
   6 C :   -0.102144
   7 C :   -0.631512
   8 C :    0.061946
   9 C :   -0.075409
  10 O :   -0.669464
  11 C :    0.177159
  12 C :   -0.698517
  13 C :    0.093426
  14 S :    0.826777
  15 O :   -0.730992
  16 O :   -0.724885
  17 O :   -0.810745
  18 C :   -0.302996
  19 C :   -0.440263
  20 C :   -0.014634
  21 H :    0.120360
  22 H :   -0.028317
  23 H :    0.006800
  24 H :    0.010364
  25 H :    0.023639
  26 H :    0.044327
  27 H :    0.107871
Sum of atomic charges:   -8.0000000

LOEWDIN ATOMIC CHARGES
----------------------
   0 Na:   -3.029820
   1 O :   -0.064260
   2 C :   -0.424890
   3 C :   -0.143199
   4 C :   -0.263483
   5 C :   -0.381385
   6 C :   -0.312631
   7 C :   -0.334934
   8 C :   -0.200176
   9 C :   -0.492082
  10 O :   -0.221276
  11 C :   -0.166181
  12 C :   -0.323680
  13 C :   -0.460637
  14 S :    0.688942
  15 O :   -0.584931
  16 O :   -0.581655
  17 O :   -0.730387
  18 C :   -0.266760
  19 C :   -0.243217
  20 C :   -0.198410
  21 H :    0.107887
  22 H :    0.088482
  23 H :    0.096769
  24 H :    0.098123
  25 H :    0.108014
  26 H :    0.116113
  27 H :    0.119665

  Mayer bond orders larger than 0.100000
B(  0-Na,  2-C ) :  -0.1430 B(  0-Na,  3-C ) :   0.1544 B(  0-Na,  4-C ) :  -0.1731
B(  0-Na, 22-H ) :   0.1067 B(  1-O ,  2-C ) :   2.1019 B(  1-O ,  3-C ) :  -0.3551
B(  1-O ,  4-C ) :   0.1675 B(  1-O , 19-C ) :   0.1751 B(  1-O , 20-C ) :  -0.3089
B(  2-C ,  3-C ) :   1.0020 B(  2-C , 20-C ) :   1.2784 B(  3-C ,  4-C ) :   1.4015
B(  3-C ,  8-C ) :   1.1656 B(  4-C ,  5-C ) :   1.1404 B(  4-C , 21-H ) :   0.9704
B(  5-C ,  6-C ) :   1.3796 B(  5-C , 22-H ) :   1.0260 B(  6-C ,  7-C ) :   1.3516
B(  6-C , 23-H ) :   1.0286 B(  7-C ,  8-C ) :   0.9220 B(  7-C , 10-O ) :   0.2358
B(  7-C , 24-H ) :   1.0556 B(  8-C ,  9-C ) :   1.2992 B(  8-C , 10-O ) :  -0.4231
B(  9-C , 10-O ) :   2.1180 B(  9-C , 11-C ) :   1.0231 B( 10-O , 11-C ) :  -0.4542
B( 10-O , 12-C ) :   0.2163 B( 11-C , 12-C ) :   1.2864 B( 11-C , 20-C ) :   1.1672
B( 12-C , 13-C ) :   0.9725 B( 12-C , 25-H ) :   1.0676 B( 13-C , 14-S ) :   1.0902
B( 13-C , 18-C ) :   1.1503 B( 14-S , 15-O ) :   1.5519 B( 14-S , 16-O ) :   1.5618
B( 14-S , 17-O ) :   1.3930 B( 18-C , 19-C ) :   1.5525 B( 18-C , 26-H ) :   1.0313
B( 19-C , 20-C ) :   0.9822 B( 19-C , 27-H ) :   1.0079

Dispersion correction           -0.014984834
FINAL SINGLE POINT ENERGY     -1473.770304429633
Dispersion correction            ... done
Dispersion correction           -0.014863400
FINAL SINGLE POINT ENERGY     -1473.829002030472
Dispersion correction            ... done
Dispersion correction           -0.014758411
FINAL SINGLE POINT ENERGY     -1473.862773151661
Dispersion correction            ... done
FINAL SINGLE POINT ENERGY     -1473.873164470755
FINAL SINGLE POINT ENERGY     -1473.878360851188
FINAL SINGLE POINT ENERGY     -1473.882781044144
FINAL SINGLE POINT ENERGY     -1473.887194638118
FINAL SINGLE POINT ENERGY     -1473.891238875315
FINAL SINGLE POINT ENERGY     -1473.895005227120
FINAL SINGLE POINT ENERGY     -1473.898936696371
FINAL SINGLE POINT ENERGY     -1474.056426411643
FINAL SINGLE POINT ENERGY     -1474.057649087952
FINAL SINGLE POINT ENERGY     -1474.058817461015
FINAL SINGLE POINT ENERGY     -1474.060012396493
FINAL SINGLE POINT ENERGY     -1474.061166025779
FINAL SINGLE POINT ENERGY     -1474.062312824488
FINAL SINGLE POINT ENERGY     -1474.063428105092
Dispersion correction           -0.011807738
FINAL SINGLE POINT ENERGY     -1474.064540513606
Dispersion correction            ... done
Dispersion correction           -0.011806492
FINAL SINGLE POINT ENERGY     -1474.065622611100
Dispersion correction            ... done

CARTESIAN COORDINATES (ANGSTROEM)
---------------------------------
  Na   -13.658862    3.718081   -1.820457
  O      1.401786   -0.342141    0.153515
  C      2.732261   -0.335630    0.127842
  C      3.446835    0.955458    0.109978
  C      2.753462    2.142298    0.145404
  C      3.384190    3.440705    0.161739
  C      4.782183    3.458592    0.061450
  C      5.536109    2.300398    0.016796
  C      4.922480    0.964630    0.053801
  C      5.690548   -0.183773    0.032240
  O      7.021838   -0.157860   -0.028318
  C      4.984036   -1.479589    0.092914
  C      5.680594   -2.663225    0.133381
  C      5.039723   -3.971896    0.227751
  S      5.936964   -5.426119    0.115479
  O      5.026642   -6.551855    0.431543
  O      6.500594   -5.621297   -1.247690
  O      7.066865   -5.384560    1.074256
  C      3.628530   -3.975905    0.195191
  C      2.892689   -2.819378    0.146647
  C      3.505840   -1.483971    0.123103
  H      1.669729    2.056793    0.191983
  H      2.797550    4.354954    0.092750
  H      5.302931    4.421417    0.031272
  H      6.620088    2.348827   -0.035999
  H      6.763840   -2.592571    0.117102
  H      3.114804   -4.935229    0.217996
  H      1.807441   -2.865805    0.151253

Dispersion correction           -0.011805149
FINAL SINGLE POINT ENERGY     -1474.066703098539
Dispersion correction            ... done

DIPOLE MOMENT
-------------
                                X             Y             Z
Electronic contribution:     64.21159     -33.34534       6.31091
Nuclear contribution   :     20.01255       6.62988       2.63613
                        -----------------------------------------
Total Dipole Moment    :     84.22414     -26.71546       8.94704
                        -----------------------------------------
Magnitude (a.u.)       :     88.81144
Magnitude (Debye)      :    225.74074

Rotational constants in cm-1:     0.007541     0.001777     0.001452
Rotational constants in MHz :   226.072651    53.279023    43.538200

                             ****ORCA TERMINATED NORMALLY****
TOTAL RUN TIME: 3 days 16 hours 49 minutes 47 seconds 584 msec
